3
Properties=species:S:1:pos:R:3:forces:R:3 energy=-2076.860499290498 pbc="F F F"
O        0.00000150      -0.00000034      -0.06100471      -0.00018059      -0.00000357      -0.00693493
H        0.75585965       0.00000016       0.53501193       0.00734432       0.00000156       0.00512052
H       -0.75586114       0.00000018       0.53501114      -0.00716379       0.00000202       0.00495869
