3
Properties=species:S:1:pos:R:3:forces:R:3 energy=-2076.8590259680986 pbc="F F F"
O       -0.00000000      -0.00000000      -0.05379252       0.00000000       0.00000000      -0.27048453
H        0.76154904       0.00000000       0.53130988       0.00848069      -0.00000000       0.13691775
H       -0.76154904      -0.00000000       0.53130988      -0.00848069      -0.00000000       0.13691775
