3
Properties=species:S:1:pos:R:3:forces:R:3 energy=-2076.8604490738776 pbc="F F F"
O       -0.00000000      -0.00000000      -0.06018862      -0.00000000       0.00000000      -0.06635022
H        0.75582608       0.00000000       0.53457661       0.03471143      -0.00000000       0.03474131
H       -0.75582608      -0.00000000       0.53457661      -0.03471143       0.00000000       0.03474131
