3
Properties=species:S:1:pos:R:3:forces:R:3 energy=-2076.815538760718 pbc="F F F"
O       -0.00000000      -0.00000000      -0.06093601       0.00000000       0.00000000       1.25159320
H        0.79078298       0.00000000       0.53476323      -1.26323563       0.00000000      -0.62366131
H       -0.79078298      -0.00000000       0.53476323       1.26323563       0.00000000      -0.62366131
