3
Properties=species:S:1:pos:R:3:forces:R:3 energy=-2076.855611124072 pbc="F F F"
O       -0.00000000       0.00000000      -0.04859038      -0.00000000      -0.00000000      -0.28318688
H        0.76972460       0.00000000       0.52865059      -0.15516310       0.00000000       0.14339771
H       -0.76972460      -0.00000000       0.52865059       0.15516310      -0.00000000       0.14339771
