3
Properties=species:S:1:pos:R:3:forces:R:3 energy=-2076.8604995451224 pbc="F F F"
O       -0.00000000       0.00000000      -0.06100621      -0.00000000       0.00000000      -0.00695034
H        0.75586150       0.00000000       0.53501223       0.00726378       0.00000000       0.00504684
H       -0.75586150      -0.00000000       0.53501223      -0.00726378      -0.00000000       0.00504684
