3
Properties=species:S:1:pos:R:3:forces:R:3 energy=-2076.850511351629 pbc="F F F"
O       -0.00000000      -0.00000000      -0.04830601      -0.00000000       0.00000000       0.02089140
H        0.77781296       0.00000000       0.52847053      -0.46286288       0.00000000      -0.00836736
H       -0.77781296      -0.00000000       0.52847053       0.46286288      -0.00000000      -0.00836736
