3
Properties=species:S:1:pos:R:3:forces:R:3 energy=-2076.6714197793576 pbc="F F F"
O        0.00000000       0.00000000       0.00000000      -0.00000000      -0.00000000      -4.26552083
H        0.75860000       0.00000000       0.50430000       2.25280839       0.00000000       2.13242603
H       -0.75860000       0.00000000       0.50430000      -2.25280839      -0.00000000       2.13242603
