3
Properties=species:S:1:pos:R:3:forces:R:3 energy=-2076.8155513369584 pbc="F F F"
O       -0.00000047      -0.00000006      -0.06093306       0.00005071      -0.00000129       1.25134288
H        0.79078030       0.00000003       0.53476198      -1.26309523       0.00000052      -0.62355475
H       -0.79077984       0.00000003       0.53476155       1.26304452       0.00000078      -0.62351586
