3
Properties=species:S:1:pos:R:3:forces:R:3 energy=-2076.8505125289726 pbc="F F F"
O        0.00000006      -0.00000007      -0.04830533      -0.00006944       0.00000194       0.02092719
H        0.77781136       0.00000003       0.52847022      -0.46284657      -0.00000072      -0.00834955
H       -0.77781142       0.00000004       0.52847019       0.46291601      -0.00000121      -0.00841975
