3
Properties=species:S:1:pos:R:3:forces:R:3 energy=-2076.860448564175 pbc="F F F"
O       -0.00000182      -0.00000028      -0.06018749       0.00021413      -0.00000357      -0.06633462
H        0.75582555       0.00000013       0.53457764       0.03460406       0.00000171       0.03465961
H       -0.75582372       0.00000015       0.53457456      -0.03481807       0.00000187       0.03480870
