3
Properties=species:S:1:pos:R:3:forces:R:3 energy=-2076.671419472311 pbc="F F F"
O        0.00000000       0.00000000       0.00000000      -0.00003277      -0.00000411      -4.26531436
H        0.75860000       0.00000000       0.50430000       2.25262124       0.00000188       2.13233865
H       -0.75860000       0.00000000       0.50430000      -2.25258847       0.00000224       2.13230819
