3
Properties=species:S:1:pos:R:3:forces:R:3 energy=-2076.859024882667 pbc="F F F"
O        0.00000062      -0.00000015      -0.05379062      -0.00010352      -0.00000465      -0.27049525
H        0.76154779       0.00000007       0.53130920       0.00852468       0.00000215       0.13697317
H       -0.76154840       0.00000008       0.53130870      -0.00842121       0.00000251       0.13687426
