3
Properties=species:S:1:pos:R:3:forces:R:3 energy=-2076.8556113577115 pbc="F F F"
O       -0.00000122      -0.00000004      -0.04858910       0.00010368      -0.00000560      -0.28322679
H        0.76972265       0.00000002       0.52865065      -0.15518180       0.00000245       0.14338826
H       -0.76972143       0.00000002       0.52864932       0.15507827       0.00000315       0.14344678
